/*--------------------------------*- C++ -*----------------------------------*\
| =========                 |                                                 |
| \\      /  F ield         | OpenFOAM: The Open Source CFD Toolbox           |
|  \\    /   O peration     | Version:  2.3.0                                 |
|   \\  /    A nd           | Web:      www.OpenFOAM.org                      |
|    \\/     M anipulation  |                                                 |
\*---------------------------------------------------------------------------*/
FoamFile
{
    version     2.0;
    format      ascii;
    class       volScalarField;
    location    "2";
    object      PLTmin;
}
// * * * * * * * * * * * * * * * * * * * * * * * * * * * * * * * * * * * * * //

dimensions      [0 -3 0 0 0 1 0];

internalField   uniform 0; 

boundaryField
{
    "in-.*"  { type zeroGradient; }
    "ou-.*"  { type zeroGradient; }
    "ai.*" { type cyclicAMI; value uniform 0; } 
    //"ws.*|wr.*" { type fixedValue; value uniform 0; } 
    "w.*" { type fixedValue; value uniform 0; } 
}
